% Model:              syreDefaultMotor.mph
% Version:            COMSOL 6.2.0.290
% Date:               Jul 19 2024, 10:27
% Dimension:          2
% Nodes:              6400
% Expressions:        3
% Description:        Surface
% X                       Y                        von Mises stress         u                        v
52.14142857815475         50.32152969228945        1.807674527189197        0.0012801160766462585    7.491148315681215E-4
53.0328323151355          50.586035802912264       1.7394006748163906       0.001282550999108793     7.28186409815784E-4
53.92423605211625         50.850541913535075       1.7393773558546908       0.001287401658979361     7.031131679120705E-4
54.815639789097           51.115048024157886       1.719449138386408        0.0012946680562579626    6.738951058569814E-4
52.213405254252955        51.424454438601614       2.3794560383562793       0.0012968918341705795    7.583808435783423E-4
53.11056043435662         51.696195380162756       2.380567948762464        0.0013009495506895834    7.349612986533218E-4
54.007715614460274        51.967936321723876       2.4507266707936877       0.00130742300461662      7.073969335769249E-4
52.28538193035115         52.52737918491378        3.0312032547348866       0.001308191209805552     7.671208601572556E-4
53.188288553577735        52.806354957413234       3.064163579381966        0.0013138717203810245    7.412101920595516E-4
52.35735860644934         53.63030393122593        3.805467826715154        0.0013140142035511753    7.753348813048614E-4
54.473339872422045        47.37268239155337        1.5655293457552226       0.0012050150463545262    6.608168452647143E-4
55.49983916349897         47.58586193488694        1.0916148625908098       0.0012067606558689562    6.325389315873023E-4
56.526338454575885        47.79904147822052        0.681662003320064        0.0012106087477640902    6.015850302033756E-4
57.55283774565282         48.012221021554105       0.18778650694618793      0.0012165593220399287    5.679551411129341E-4
54.58743984464704         48.62013760242153        1.502070032646675        0.0012367294597981425    6.669528625892207E-4
55.622617578759595        48.842665220930535       1.1470469660228564       0.001240916334916245     6.354426977980873E-4
56.65779531287214         49.065192839439526       0.8094886416362852       0.001247205692415051     6.012565453004388E-4
54.70153981687201         49.867592813289704       1.581299429561791        0.0012666137964326214    6.713122827866431E-4
55.7453959940202          50.09946850697414        1.2445639915047637       0.001273241937154396     6.36569866881788E-4
51.727600145154106        54.237962397949495       5.277528223421761        0.001305426321125613     8.02795337524865E-4
51.09194389132415         54.837186844953145       6.504553908925047        0.0012856977180564042    8.270120159387919E-4
50.450389844959474        55.42797727223691        7.962359468875623        0.00125482839434355      8.479849165466423E-4
51.528999989316574        53.35800961392132        3.2850828874938114       0.001309660236221314     7.968654640730937E-4
50.89629263175398         53.96145107078493        4.508373946134067        0.0013043547361282998    8.181722877100409E-4
50.25768748165665         54.55645850792864        5.895395550326272        0.001287908515391639     8.362353335409114E-4
50.700641372183796        53.08571529661671        2.7007642789000146       0.0013096411193771315    8.092727082196006E-4
50.064985118353846        53.68493974362039        4.009070337899491        0.0013076180016166655    8.244258992734916E-4
49.872282755051025        52.81342097931211        1.9734321016335383       0.0013139568530186284    8.125566137443826E-4
48.61156946229732         55.18403220453826        2.4373992335263055       0.0012559310372629994    8.204165976400058E-4
48.12635144430524         55.310736756190245       2.126625550981224        0.0012463675838492476    7.939519192006203E-4
47.64113342631315         55.437441307842214       3.157221299017117        0.0012351931892961988    7.533787121098165E-4
47.15591540832106         55.564145859494204       4.548029446272026        0.0012224078536038525    6.986969763675945E-4
48.27868285182903         54.73356761562111        2.6096832248982427       0.0012852910826431246    8.050704693649572E-4
47.815925236012724        54.86295888382174        4.057142080530151        0.0012761291209879707    7.779363875366097E-4
47.353167620196395        54.99235015202236        5.662393502587087        0.0012653562181935193    7.366937770568437E-4
47.945796241360746        54.283103026703955       3.256162452610746        0.0013077868029002       7.986764222534579E-4
47.5054990277202          54.41518101145325        5.971393215953674        0.0012990263330036438    7.708729370361482E-4
47.61290963089245         53.83263843778681        3.0895508126354194       0.0013234181980342251    8.012344563055077E-4
56.10725342961162         44.18611271915666        2.0528644313077966       0.0011045009054508079    5.911511540177685E-4
57.473009356070705        44.338112338225315       1.626372290085225        0.001100411614383836     5.590423290630644E-4
58.83876528252979         44.490111957293955       1.262182164774639        0.0010992443715212013    5.256258401299568E-4
60.204521208988886        44.642111576362616       1.0095279729495032       0.001100999176862904     4.909016872184461E-4
56.58911486829201         45.46148215328913        1.369408550025989        0.0011398696521905264    5.882505347719771E-4
57.964981038089135        45.622679974700524       0.9617978597841532       0.0011394346199659065    5.506689163653686E-4
59.340847207886256        45.7838777961119         0.6235887466270276       0.0011419216359456227    5.117796339803568E-4
57.07097630697241         46.73685158742161        0.731940832280684        0.0011772224577202331    5.805185304703657E-4
58.456952720107594        46.90724761117574        0.3217649896834777       0.0011804416843379647    5.37464118611853E-4
49.22450958985137         55.265347227104485       4.772511061910613        0.00125107875188182      8.416840219970625E-4
49.83744971740542         55.34666224967069        6.425130234004942        0.0012507112042420031    8.508734616326079E-4
48.73789230890785         55.69681860339917        6.074017337858608        0.0012155487970033805    8.317972746836554E-4
49.35236181480022         55.780548800714584       7.905719803508568        0.0012149661218110192    8.522433849789959E-4
49.96683132069256         55.864278998029995       9.577210507944367        0.0012188681843600204    8.606115105528248E-4
48.86421515551841         56.20960500226006        9.091560519654124        0.0011655027780798745    8.445336690938459E-4
49.48021403974907         56.29575037432469        10.830784134767972       0.0011691897130763314    8.641584653274701E-4
48.99053800212896         56.72239140112095        12.241767769101974       0.001105792980492482     8.586257808705769E-4
47.5873920583676          56.74363939513013        3.8526079765056216       0.0010721295672801343    7.409097566127973E-4
47.21825104335038         56.79945751199015        2.7233645507230335       0.0010584012572355762    6.875210075203087E-4
46.84911002833316         56.855275628850166       2.3325288630070657       0.0010456419504741724    6.226456929830663E-4
46.47996901331595         56.91109374571019        1.6731760151498138       0.0010338516469959233    5.462838130010702E-4
47.443566508352085        56.3504748832515         3.0660628180047365       0.0011319744957500929    7.21975840790024E-4
47.08884279403434         56.41290549579858        3.5018837277797625       0.0011206340409162668    6.700522311671732E-4
46.734119079716606        56.47533610834568        3.9801288200098495       0.0011102625893655948    6.066420560995684E-4
47.299740958336564        55.95731037137285        3.6057050464012637       0.001182067257857999     7.079049140416231E-4
46.95943454471831         56.02635347960704        4.624291532359956        0.001173114658234905     6.5744644388841E-4
59.51958955713795         43.3806066573981         1.433063353762643        0.0010602355018916707    5.091826721146625E-4
58.83465790528701         42.119101738433585       1.8145409998863196       0.0010236879989905415    5.205269326456235E-4
58.149726253436064        40.857596819469066       2.3139723018645006       9.91356668159517E-4      5.249344688113291E-4
61.0444082632513          43.48659909394938        1.716714798899018        0.0010591604033539487    4.772929656721566E-4
60.34863281575697         42.21681025064001        1.961402794483696        0.001020150362473615     4.94595898877887E-4
59.65285736826262         40.94702140733063        2.2394619083825287       9.85356493663385E-4      5.049621077183619E-4
61.862607726226926        42.31451876284642        2.200829757877632        0.0010190605942539802    4.709045736498728E-4
61.15598848308921         41.0364459951922         2.3690878671308884       9.818041874645454E-4     4.87229455165117E-4
62.65911959791577         41.125870583053754       2.613477492953504        9.806997495629976E-4     4.7173651115159474E-4
48.055107372954716        56.7365567304604         7.155623969694394        0.0010805745867738196    7.943731608857241E-4
48.52282268754183         56.729474065790676       9.738048371275784        0.0010917957245112691    8.336118356383174E-4
47.68195567282199         57.05252169644031        7.576066269765944        0.0010189244847146112    7.550947626597864E-4
48.15048982129759         57.04683559472889        10.288793019625055       0.001030986682859509     8.074998911429817E-4
48.61902396977319         57.041149493017436       12.834230573069847       0.0010458249992481706    8.456802901058429E-4
47.77651928727637         57.36140399775048        10.422121968654357       9.6039404589208E-4       7.705025630350311E-4
48.24587226964047         57.35711445899735        13.161365241733046       9.760734226881906E-4     8.218494157284946E-4
47.87108290173076         57.67028629906064        13.43381642626498        8.965382508125409E-4     7.871331577385315E-4
46.71497913365739         57.6957457803817         6.014656633301665        8.564020430225616E-4     5.91679989933874E-4
46.39545260112589         57.76077541971231        4.972542533955927        8.32664825488531E-4      5.204649552889864E-4
46.07592606859439         57.8258050590429         3.847368466156253        8.096374053940421E-4     4.4274003205268695E-4
45.756399536062894        57.8908346983735         3.345126267595506        7.873197827390952E-4     3.585052202249764E-4
46.63664242687691         57.43419510215785        4.094362913906082        9.195448725543645E-4     5.758973844214382E-4
46.325126946702326        57.50579202556349        3.028070468301775        8.982634105856741E-4     5.045065903999928E-4
46.01361146652773         57.577388948969094       1.9009895541417394       8.776917460565253E-4     4.266059077871362E-4
46.55830572009643         57.172644423934024       2.4680719414004653       9.78694740545485E-4      5.607653254438368E-4
46.254801292278756        57.25080863141467        1.5185656245044925       9.598690341421349E-4     4.891987720458343E-4
61.825120469565235        39.87232013665298        2.3810511437270923       9.494939600479177E-4     4.86886454142831E-4
60.9911213412147          38.61876969025222        2.184358406452052        9.225864748299516E-4     4.954507213357458E-4
60.15712221286415         37.36521924385146        2.077268352932308        8.999772939090997E-4     4.974293127303389E-4
63.431957098749976        39.92354923338397        3.0588673389667647       9.475913922340432E-4     4.8121978774212827E-4
62.58645328980046         38.66268103039094        2.7054257617337663       9.218572500693614E-4     4.935281179833631E-4
61.740949480850915        37.4018128273979         2.367877116327719        9.004214122017933E-4     4.992507724262765E-4
64.1817852383862          38.70659237052965        3.2747298508315144       9.210331464901554E-4     4.972230821588326E-4
63.324776748837685        37.438406410944346       2.820991838885961        9.007706516758716E-4     5.06689799650066E-4
64.90860401682443         37.47499999449078        3.3620270370166665       9.010250123313348E-4     5.197463944017077E-4
47.10034705634851         57.68725928660801        8.401243718711083        8.680180052701405E-4     6.680069920546618E-4
47.485714979039635        57.67877279283432        10.903859201455216       8.813967412001336E-4     7.331580479895475E-4
46.77150526809243         57.95554033797285        7.594364549725274        7.901913386222431E-4     6.03496856633947E-4
47.15746195386765         57.948124223624156       10.3053379269769         8.034754086243179E-4     6.802341303995675E-4
47.543418639642866        57.94070810927545        12.970702171042534       8.185222523088068E-4     7.457954579792861E-4
46.82803140252748         58.215334895564          9.144929204794           7.200403900824203E-4     6.167144633761282E-4
47.21457685138679         58.20898916064031        12.176310398375671       7.349925678389907E-4     6.938620087865818E-4
46.88455753696252         58.475129453155155       10.8324688612811         6.459491974030929E-4     6.313328101604182E-4
45.86502369848382         58.04966482883066        4.940051552133458        7.410499255377267E-4     3.881971536718342E-4
45.97364786090471         58.20849495928782        6.004120444763146        6.961791515418547E-4     4.163576723136607E-4
46.08227202332563         58.367325089744995       7.360231112389512        6.527074607514794E-4     4.4298677615045595E-4
45.54279319762875         58.12825520645791        7.316847555448525        7.111610763574881E-4     3.057083366438316E-4
45.64741104706847         58.28212937968462        7.848764439563684        6.659835175248067E-4     3.3338234865951127E-4
45.752028896508186        58.43600355291133        8.145136643969941        6.222050418976218E-4     3.595249458701595E-4
45.32117423323222         58.35576380008141        10.042705104823686       6.350179036650646E-4     2.5502457453389097E-4
45.42178576969075         58.50468201607769        9.945247620324768        5.909326432010703E-4     2.806806651183924E-4
45.091542642873286        58.573360479244016       12.471263657161364       5.588902646618245E-4     2.064539338951545E-4
64.1594528440053          36.29676276850951        2.8479747687060106       8.904444024058454E-4     5.254169144723797E-4
63.410301671186176        35.11852554252824        2.3982051632351533       8.836888624254708E-4     5.284518729256538E-4
62.66115049836706         33.94028831654697        2.068414578021877        8.807583923902106E-4     5.288512697615302E-4
65.61178491215193         36.229760280274846       3.315524004923503        8.91358070802366E-4      5.484951941220135E-4
64.85054403592407         35.04521858693164        2.7523886367346586       8.884218438092638E-4     5.504953274084307E-4
64.08930315969621         33.86067689358842        2.2344402205132496       8.893106867612762E-4     5.498598990774498E-4
66.29078640066197         34.971911631335026       3.0931800216854097       8.906785026452429E-4     5.796377403234465E-4
65.5174558210254          33.781065470629876       2.4401687505850744       8.95386658584528E-4      5.779674868256087E-4
66.94560848235452         33.70145404767133        2.6794801627234706       8.989863078599658E-4     6.131740330060065E-4
46.34970052787127         58.403259877548386       8.906403396472584        6.505390381534477E-4     5.07614308152755E-4
46.61712903241689         58.43919466535176        9.732073687769917        6.482862837039857E-4     5.70396319489409E-4
46.04280843790779         58.64540173902021        6.569376867679927        5.688343735903474E-4     4.320983636033879E-4
46.310714832246134        58.68225804913443        7.817654774033619        5.655093066577896E-4     4.984280941237464E-4
46.57862122658449         58.71911435924865        8.823377901682779        5.620999078738011E-4     5.6291230397846E-4
46.003344852489924        58.92347838829541        5.842473656368975        4.8606835027512453E-4    4.2132532198062734E-4
46.27172913662102         58.961256220720486       6.5403369392477          4.8158663900804065E-4    4.893572510190456E-4
45.963881267072075        59.2015550375706         4.165540792750836        4.0440939080581127E-4    4.1066765128217443E-4
44.95024555087162         59.22118547168671        9.14150059883978         3.727935017069144E-4     1.8351801213337213E-4
44.80773083733645         59.162512118776874       12.99805555086153        3.806189714290679E-4     1.5972371825308428E-4
44.66521612380126         59.10383876586703        16.039201758127902       3.8773677508777024E-4    1.383813602557266E-4
44.52270141026608         59.04516541295718        19.850097697249012       3.941469126830215E-4     1.1949093814129911E-4
44.99734458153884         59.005243807539145       10.747123737913064       4.2988333492708454E-4    1.917480548174551E-4
44.85675136246211         58.9499208943151         14.087272943204583       4.385573655543306E-4     1.6612340159067367E-4
44.71615814338538         58.89459798109101        17.19123084852776        4.465237301181254E-4     1.4295068424682237E-4
45.04444361220607         58.78930214339158        11.972146227778097       4.919155892453879E-4     1.9939336207138255E-4
44.90577188758779         58.7373296698533         14.901853562106135       5.014381807777264E-4     1.7193834949810754E-4
64.85221790289766         30.462908751126864       2.1681050371978903       9.420375980479165E-4     5.983459335360016E-4
66.15596637302026         30.247802164020992       1.7564037680048756       9.562200478202021E-4     6.290614586158252E-4
67.45971484314286         30.032695576915113       1.4196872535854435       9.675664328150519E-4     6.655660016962111E-4
68.76346331326548         29.81758898980924        1.0452494836774924       9.760767530324653E-4     7.078595627771591E-4
65.55001476271661         31.54242384997502        2.205877571823888        9.253408220661817E-4     6.026154138299654E-4
66.86635921958798         31.332566303194156       1.9632302698212187       9.35723258509546E-4      6.376655567128063E-4
68.18270367645933         31.12270875641329        1.7340231623023457       9.432696301754742E-4     6.78504717596209E-4
66.24781162253555         32.62193894882318        2.3948398983427177       9.109903920035313E-4     6.075581136533005E-4
67.57675206615569         32.41733044236732        2.2403345445794782       9.175728151179746E-4     6.469428743391584E-4
53.84955467755557         27.4286814354235         18.011683043212816       8.227753932347941E-4     3.8974291087284134E-4
53.87492110146645         27.502190792386088       16.204401032394966       8.142517527505567E-4     3.910127528434186E-4
53.900287525377315        27.575700149348666       13.913229315619361       8.06848639053338E-4      3.922790340550285E-4
53.92565394928819         27.649209506311255       11.75326516271744        8.005660521431381E-4     3.9354175450767093E-4
53.77047523365643         27.48532754267717        19.388070909785373       8.09554615867127E-4      3.90070810338258E-4
53.79241343716818         27.55511975105071        17.10203682104131        8.021253312915238E-4     3.905596672769558E-4
53.81435164067992         27.624911959424242       14.704811569936087       7.958165735029391E-4     3.910449634566862E-4
53.684539348959035        27.53453935275274        20.45694757067493        7.959117156403321E-4     3.901285653016332E-4
53.703049332071664        27.600614412537237       17.681544884472324       7.895767869733629E-4     3.898364372084516E-4
53.591747023463384        27.57631686565022        20.768083379752408       7.818466925544094E-4     3.899161757629671E-4
50.678712253926356        32.92074161767676        17.990297392179116       7.490582393969974E-4     5.185575272589522E-4
50.68822950697102         32.82393375477593        19.54396389234121        7.428025593649324E-4     5.066119452561193E-4
50.6878802453513          32.72490518966201        20.28178820894415        7.360236379786977E-4     4.946042952621781E-4
50.67766446906719         32.62365592233498        20.500914998842326       7.287214752382938E-4     4.8253457727712883E-4
50.79851468088943         32.878536087329834       15.013823873983231       7.431652839626447E-4     5.042856640103082E-4
50.803098676601905        32.78061787332246        16.00975518259355        7.366824282357964E-4     4.944588464839061E-4
50.797816157649976        32.680478957101975       16.338145893634373       7.296763311547786E-4     4.8456996096639567E-4
50.9183171078525          32.8363305569829         12.00517187842308        7.385057116541813E-4     4.927983839648696E-4
50.917967846232784        32.737301991868975       12.678886087843296       7.317956802325497E-4     4.850903309148982E-4
51.03811953481558         32.79412502663597        9.569850337831598        7.350795224716071E-4     4.840956871226365E-4
44.40748863938863         59.6514700857482         6.793299515459462        2.7080050175110184E-4    1.127488374193691E-4
44.22773957103279         59.56810242877588        10.865543939944267       2.7477223342495407E-4    9.918075311027896E-5
44.047990502676946        59.48473477180355        14.868517264411276       2.73865310681434E-4      9.174509786993467E-5
43.86824143432109         59.40136711483123        18.72984363981028        2.680797335205417E-4     9.04418716983363E-5
44.445892896347786        59.44936852815119        11.371659961559278       3.030997777333218E-4     1.1531974001636936E-4
44.27443197181185         59.37542893539421        16.083057645964654       3.0597933894497875E-4    1.0169592114463158E-4
44.1029710472759          59.30148934263724        20.83759619083396        3.039802457392632E-4     9.420453134163964E-5
44.484297153306926        59.247266970554186       15.703251219979052       3.442152480439616E-4     1.1756710692367936E-4
44.3211243725909          59.18275544201257        21.113596675896222       3.4600263879342314E-4    1.0388755348929394E-4
45.288124122938434        59.21464199364801        6.530008119618014        3.8596513747656924E-4    2.50494974618646E-4
45.626002695005255        59.20809851560931        4.872759630030834        3.965037671762015E-4     3.262115210015802E-4
45.00212348828472         59.43340681478035        5.527500942754758        3.27462994452194E-4      1.92158226072945E-4
45.340390362036665        59.42765529533063        3.8325970447644684       3.3564971061609725E-4    2.607636109080116E-4
45.6786572357886          59.4219037758809         2.5161364126713384       3.4120342070997786E-4    3.381085796407383E-4
45.05400142569779         59.64562815787398        2.5958937705633245       2.856246074736054E-4     2.0093985636227986E-4
45.39265660113488         59.640668597013246       1.4826095803278823       2.888264040317571E-4     2.711736635471391E-4
45.10587936311089         59.85784950096761        0.8633673369018701       2.4727834077114863E-4    2.0986290300137672E-4
67.0025804046273          26.739834433815204       1.7364146719156217       0.0010613500274025429    6.748473483889455E-4
68.12046092774864         26.438592630843136       1.1240302136448945       0.0010766586030441713    7.039649991500223E-4
69.23834145086997         26.137350827871064       0.6075389081625375       0.001089859370172623     7.355079736699017E-4
70.35622197399128         25.836109024899          0.18019360066509707      0.0011009523287878976    7.69476271948584E-4
67.58954137417336         27.76575261914655        1.4107808698462663       0.0010321445608737212    6.841009371920764E-4
68.7204428958628          27.468667442569014       0.8548030747549543       0.0010452597235187297    7.176111940445197E-4
69.85134441755224         27.171582265991468       0.32907311713327897      0.0010562670776505607    7.535467746557657E-4
68.17650234371942         28.791670804477896       1.1823996026749493       0.0010037201360836954    6.951050086548143E-4
69.320424863977           28.49874225429489        0.6494400449168668       0.0010146418857320835    7.330078715986242E-4
53.58323308766431         27.65914697485908        18.0873830145959         7.72925807777947E-4      3.8851095078527083E-4
53.574719151865246        27.741977084067933       15.296877468695548       7.65544603393095E-4      3.8742878851817306E-4
53.56620521606619         27.82480719327679        12.909648706311037       7.597030793998535E-4     3.86669688961674E-4
53.49803778511937         27.60756622033578        22.178081536249042       7.680426728937436E-4     3.896634643647207E-4
53.48807755910507         27.685668077850593       18.983894061665016       7.608437807804944E-4     3.8775249122940145E-4
53.47811733309076         27.7637699353654         15.778367102873908       7.551845690588555E-4     3.8616458080468065E-4
53.40143596634487         27.629359071633246       22.666823302644804       7.541947150444286E-4     3.8917133460675393E-4
53.390029450115335        27.702732677454016       18.985037505010602       7.487178155943926E-4     3.8675461331381163E-4
53.30194156713988         27.64169541954263        22.092751957697164       7.403028190064648E-4     3.884397864890668E-4
50.58938122943897         32.33998775805729        22.036263390255655       7.067440006021256E-4     4.470776311066468E-4
50.68091709705527         32.33831108594111        18.558754438236264       7.060172502547923E-4     4.506960518652546E-4
50.77245296467157         32.33663441382492        15.253866150756881       7.057504530106637E-4     4.5291326969457363E-4
50.863988832287866        32.33495774170871        12.452156123797588       7.059436088697395E-4     4.5372928459460373E-4
50.62844483836204         32.43232060925777        22.574884442775087       7.143111637870751E-4     4.5873839106184473E-4
50.715162774788176        32.43175553892095        18.821768224857045       7.129466717362146E-4     4.6058861798525135E-4
50.80188071121431         32.431190468584134       15.062860077499693       7.120421327885585E-4     4.610376419793689E-4
50.65787258490479         32.526876664017          22.381794687103714       7.216369886657978E-4     4.70557373118672E-4
50.73977259014076         32.52742319545956        18.03364218787945        7.1963475491141E-4       4.7063940620687734E-4
43.815436756903885        59.62444607494241        13.729380397961481       2.459531885617738E-4     8.823293378683698E-5
43.762632079486686        59.84752503505357        9.6447931890934          2.2844219969773177E-4    8.798754326317801E-5
43.709827402069486        60.07060399516474        5.755386641271408        2.155467669284158E-4     8.970570012735944E-5
43.63170002510741         59.47509324748923        16.1530250366378         2.412873340478472E-4     9.217801906808027E-5
43.57553288945304         59.6863614631074         11.664041860119362       2.2708906351217903E-4    9.045845718338618E-5
43.51936575379866         59.897629678725565       7.395959412349805        2.1750634907123664E-4    9.070244268653244E-5
43.38843369941938         59.52519789116123        13.859500331601334       2.1867460622242876E-4    9.723918436228758E-5
43.32890410552784         59.72465536228643        9.156399185496788        2.1240461010986012E-4    9.600899850439873E-5
43.13844245725701         59.551681045847246       10.125041886986846       2.0024155004428617E-4    1.0562536758095829E-4
44.64028554729606         59.720263224154664       4.139708235312396        2.668353770141323E-4     1.3707865588875038E-4
44.873082455203466        59.78905636256113        2.3249815455263327       2.589946566874812E-4     1.6945001108275285E-4
44.3690827523131          59.92176742627319        4.11783835971255         2.3718777378348645E-4    1.1093891415838384E-4
44.60220732332802         59.99126585817769        2.8082782831604938       2.3172503506162082E-4    1.3296234121860784E-4
44.83533189434293         60.06076429008216        2.0807105042018286       2.2238670075007354E-4    1.630273050034531E-4
44.33067686523756         60.19206476679818        2.4020010813814556       2.1382196632432123E-4    1.0903167225038438E-4
44.56412909935998         60.262268492200704       2.020401745682474        2.0686161361755946E-4    1.2874870790145117E-4
44.292270978162016        60.46236210732318        0.923911508626543        2.0070307937360618E-4    1.0702711169537076E-4
68.08421462852861         22.55084309403616        1.7078989289281037       0.001205559525828478     7.100352433448777E-4
69.28105975317132         22.33863291572349        1.663755844183177        0.0012170779911057682    7.335371712309782E-4
70.477904877814           22.126422737410824       1.7021673107976023       0.0012257508065735795    7.581943350802476E-4
71.67475000245668         21.914212559098157       1.76420423848221         0.001231577972231912     7.840067348926864E-4
68.84155041034951         23.64593173765711        1.2605815676513106       0.0011723909435209564    7.25656646036755E-4
70.0508304270811          23.436563273886062       1.23391142835908         0.0011819721874791675    7.543656180707217E-4
71.26011044381268         23.22719481011501        1.2520844444945163       0.0011887077816278991    7.842298260678569E-4
69.59888619217038         24.741020381278048       0.7632594369870556       0.0011375218778407635    7.454703222379904E-4
70.8206011009909          24.53449363204863        0.8052850205647237       0.0011451659004798947    7.79386338419823E-4
53.264065600276346        27.72125642286709        18.861198451943455       7.33713691045145E-4      3.853901214585532E-4
53.226189633412815        27.800817426191553       15.728600895639872       7.283479702073995E-4     3.8317660258393917E-4